============================== echo of input deck ==============================
echo

start molecule

title "Vitamin A"
charge 0

geometry units angstroms print xyz autosym
   O        8.23090        1.08960        1.43850
   C       -4.50650       -0.75290        0.53270
   C       -5.86520       -0.00580        0.43860
   C       -5.72420        1.48000        0.71630
   C       -3.37820        0.02580       -0.18360
   C       -4.78440        2.11310       -0.29860
   C       -3.52650        1.31550       -0.57830
   C       -4.74240       -2.14750       -0.09740
   C       -4.13920       -0.94260        2.02230
   C       -2.13890       -0.70680       -0.38440
   C       -2.50080        2.13310       -1.32910
   C       -0.92580       -0.15850       -0.21170
   C        0.37010       -0.82240       -0.39180
   C        0.34890       -2.27020       -0.81470
   C        1.49220       -0.10380       -0.17050
   C        2.86890       -0.54770       -0.28660
   C        3.91310        0.26240       -0.03920
   C        5.33450       -0.08700       -0.12740
   C        5.68150       -1.49390       -0.53910
   C        6.24950        0.86290        0.15950
   C        7.74250        0.75660        0.14440
   H       -6.59080       -0.43940        1.13850
   H       -6.29440       -0.13310       -0.56520
   H       -5.34960        1.64790        1.73250
   H       -6.70480        1.96670        0.66130
   H       -4.51520        3.11280        0.06460
   H       -5.31970        2.25210       -1.24690
   H       -4.86950       -2.07800       -1.18400
   H       -3.91950       -2.84110        0.10650
   H       -5.64700       -2.61300        0.31260
   H       -4.95350       -1.42880        2.57170
   H       -3.24970       -1.57280        2.13880
   H       -3.92690        0.01230        2.51520
   H       -2.22830       -1.73050       -0.72870
   H       -3.00400        2.79680       -2.04290
   H       -1.82050        1.53150       -1.93700
   H       -1.92990        2.76390       -0.64070
   H       -0.85390        0.85810        0.16980
   H        1.34080       -2.71360       -0.92190
   H       -0.18490       -2.87810       -0.07560
   H       -0.14820       -2.37890       -1.78520
   H        1.38670        0.93920        0.13160
   H        3.04280       -1.57400       -0.58540
   H        3.70320        1.28960        0.25960
   H        5.26980       -2.21570        0.17510
   H        6.75540       -1.68330       -0.59010
   H        5.27830       -1.71400       -1.53390
   H        5.89390        1.85510        0.44060
   H        8.15270        1.48050       -0.56650
   H        8.12860       -0.22760       -0.12270
   H        7.90990        0.41120        2.05730
end

basis cartesian
  * library cc-pVDZ
end

scf
  singlet
end

task scf energy
================================================================================

 Output coordinates in angstroms (scale by  1.889725989 to convert to a.u.)

  No.       Tag          Charge          X              Y              Z
 ---- ---------------- ---------- -------------- -------------- --------------
    1 O                    8.0000     1.10864320    -8.22784982     1.37155806
    2 C                    6.0000    -0.71057462     4.51819762     0.54369333
    3 C                    6.0000     0.03891013     5.87501989     0.44178741
    4 C                    6.0000     1.52880155     5.72860304     0.69355238
    5 C                    6.0000     0.05237308     3.39024884    -0.18990236
    6 C                    6.0000     2.14164311     4.79068398    -0.33542513
    7 C                    6.0000     1.33558935     3.53618847    -0.60603299
    8 C                    6.0000    -2.11500885     4.76054330    -0.06163059
    9 C                    6.0000    -0.87592691     4.14596926     2.03497071
   10 C                    6.0000    -0.68728740     2.15386991    -0.38266490
   11 C                    6.0000     2.13715212     2.51085074    -1.37441475
   12 C                    6.0000    -0.13978535     0.93852495    -0.22376898
   13 C                    6.0000    -0.81057373    -0.35473287    -0.39721404
   14 C                    6.0000    -2.26531132    -0.32769158    -0.79524166
   15 C                    6.0000    -0.09169280    -1.47976175    -0.19230358
   16 C                    6.0000    -0.54166574    -2.85470535    -0.30581021
   17 C                    6.0000     0.26938225    -3.90220197    -0.07608338
   18 C                    6.0000    -0.08576362    -5.32222745    -0.16347106
   19 C                    6.0000    -1.50052816    -5.66354431    -0.55233812
   20 C                    6.0000     0.86612784    -6.24108465     0.10383162
   21 C                    6.0000     0.75507708    -7.73369789     0.08511986
   22 H                    1.0000    -0.38048557     6.59931300     1.15162617
   23 H                    1.0000    -0.10421007     6.30829351    -0.55812406
   24 H                    1.0000     1.71289222     5.34976300     1.70536702
   25 H                    1.0000     2.01745101     6.70795548     0.63381346
   26 H                    1.0000     3.14657994     4.51719090     0.00966393
   27 H                    1.0000     2.26605074     5.32906415    -1.28400803
   28 H                    1.0000    -2.06368444     4.89144362    -1.14878980
   29 H                    1.0000    -2.80750913     3.93895188     0.15109335
   30 H                    1.0000    -2.57070796     5.66499789     0.35954828
   31 H                    1.0000    -1.35021597     4.95967197     2.59555350
   32 H                    1.0000    -1.50672983     3.25791339     2.15898279
   33 H                    1.0000     0.08660257     3.92902971     2.51071218
   34 H                    1.0000    -1.71644101     2.24756628    -0.70910080
   35 H                    1.0000     2.79008704     3.01471463    -2.09761289
   36 H                    1.0000     1.52321071     1.83457947    -1.97441989
   37 H                    1.0000     2.77788462     1.93555275    -0.69897112
   38 H                    1.0000     0.88295720     0.86221219     0.14004616
   39 H                    1.0000    -2.71347028    -1.31787378    -0.89845873
   40 H                    1.0000    -2.85889091     0.20517461    -0.04392910
   41 H                    1.0000    -2.38906080     0.17330346    -1.76192898
   42 H                    1.0000     0.95662613    -1.37846175     0.09231790
   43 H                    1.0000    -1.57343742    -3.02446615    -0.58766622
   44 H                    1.0000     1.30216252    -3.69644424     0.20588818
   45 H                    1.0000    -2.20878445    -5.25234807     0.17557977
   46 H                    1.0000    -1.69401356    -6.73668407    -0.60400071
   47 H                    1.0000    -1.73635930    -5.25602913    -1.54176034
   48 H                    1.0000     1.86405125    -5.88945976     0.36923363
   49 H                    1.0000     1.46549391    -8.14341253    -0.63952895
   50 H                    1.0000    -0.23470065    -8.11589774    -0.16653187
   51 H                    1.0000     0.44187792    -7.90712909     2.00301929

         Total SCF energy =   -849.680409459454

 Vector   51  Occ=2.000000D+00  E=-5.870592D-01

 Vector   52  Occ=2.000000D+00  E=-5.794768D-01

 Vector   53  Occ=2.000000D+00  E=-5.770197D-01

 Vector   54  Occ=2.000000D+00  E=-5.763180D-01

 Vector   55  Occ=2.000000D+00  E=-5.748671D-01

 Vector   56  Occ=2.000000D+00  E=-5.577307D-01

 Vector   57  Occ=2.000000D+00  E=-5.518824D-01

 Vector   58  Occ=2.000000D+00  E=-5.473142D-01

 Vector   59  Occ=2.000000D+00  E=-5.462152D-01

 Vector   60  Occ=2.000000D+00  E=-5.353338D-01

 Vector   61  Occ=2.000000D+00  E=-5.278322D-01

 Vector   62  Occ=2.000000D+00  E=-5.193673D-01

 Vector   63  Occ=2.000000D+00  E=-5.161368D-01

 Vector   64  Occ=2.000000D+00  E=-5.124589D-01

 Vector   65  Occ=2.000000D+00  E=-4.965979D-01

 Vector   66  Occ=2.000000D+00  E=-4.897329D-01

 Vector   67  Occ=2.000000D+00  E=-4.889897D-01

 Vector   68  Occ=2.000000D+00  E=-4.837061D-01

 Vector   69  Occ=2.000000D+00  E=-4.771702D-01

 Vector   70  Occ=2.000000D+00  E=-4.736369D-01

 Vector   71  Occ=2.000000D+00  E=-4.550845D-01

 Vector   72  Occ=2.000000D+00  E=-4.492351D-01

 Vector   73  Occ=2.000000D+00  E=-4.420953D-01

 Vector   74  Occ=2.000000D+00  E=-4.367557D-01

 Vector   75  Occ=2.000000D+00  E=-4.193405D-01

 Vector   76  Occ=2.000000D+00  E=-4.079299D-01

 Vector   77  Occ=2.000000D+00  E=-3.643419D-01

 Vector   78  Occ=2.000000D+00  E=-3.170390D-01

 Vector   79  Occ=2.000000D+00  E=-2.596069D-01

 Vector   80  Occ=0.000000D+00  E= 7.468729D-02

 Vector   81  Occ=0.000000D+00  E= 1.480658D-01

 Vector   82  Occ=0.000000D+00  E= 1.727249D-01

 Vector   83  Occ=0.000000D+00  E= 1.763549D-01

 Vector   84  Occ=0.000000D+00  E= 1.834106D-01

 Vector   85  Occ=0.000000D+00  E= 1.903475D-01

 Vector   86  Occ=0.000000D+00  E= 1.969808D-01

 Vector   87  Occ=0.000000D+00  E= 2.004484D-01

 Vector   88  Occ=0.000000D+00  E= 2.128338D-01

 Vector   89  Occ=0.000000D+00  E= 2.158989D-01

 Vector   90  Occ=0.000000D+00  E= 2.213425D-01

 Vector   91  Occ=0.000000D+00  E= 2.272997D-01

 Vector   92  Occ=0.000000D+00  E= 2.295076D-01

 Vector   93  Occ=0.000000D+00  E= 2.367105D-01

 Vector   94  Occ=0.000000D+00  E= 2.378980D-01

 Vector   95  Occ=0.000000D+00  E= 2.389952D-01

 Vector   96  Occ=0.000000D+00  E= 2.468982D-01

 Vector   97  Occ=0.000000D+00  E= 2.524838D-01

 Vector   98  Occ=0.000000D+00  E= 2.603889D-01

 Vector   99  Occ=0.000000D+00  E= 2.688032D-01

 Vector  100  Occ=0.000000D+00  E= 2.725019D-01

 Vector  101  Occ=0.000000D+00  E= 2.737321D-01

 Vector  102  Occ=0.000000D+00  E= 2.778214D-01

 Vector  103  Occ=0.000000D+00  E= 2.831957D-01

 Vector  104  Occ=0.000000D+00  E= 2.855798D-01

 Vector  105  Occ=0.000000D+00  E= 2.954217D-01

 Vector  106  Occ=0.000000D+00  E= 3.023295D-01

 Vector  107  Occ=0.000000D+00  E= 3.055334D-01

 Vector  108  Occ=0.000000D+00  E= 3.136424D-01

 Vector  109  Occ=0.000000D+00  E= 3.218464D-01

 Vector  110  Occ=0.000000D+00  E= 3.264578D-01

 Vector  111  Occ=0.000000D+00  E= 3.306024D-01

 Vector  112  Occ=0.000000D+00  E= 3.399372D-01

 Vector  113  Occ=0.000000D+00  E= 3.451061D-01

 Vector  114  Occ=0.000000D+00  E= 3.526211D-01

 Vector  115  Occ=0.000000D+00  E= 3.557962D-01

 Vector  116  Occ=0.000000D+00  E= 3.670549D-01

 Vector  117  Occ=0.000000D+00  E= 3.865063D-01

 Vector  118  Occ=0.000000D+00  E= 3.877515D-01

 Vector  119  Occ=0.000000D+00  E= 4.016219D-01

 Vector  120  Occ=0.000000D+00  E= 4.063456D-01

 Vector  121  Occ=0.000000D+00  E= 4.079415D-01

 Vector  122  Occ=0.000000D+00  E= 4.253830D-01

 Vector  123  Occ=0.000000D+00  E= 4.300761D-01

 Vector  124  Occ=0.000000D+00  E= 4.365031D-01

 Vector  125  Occ=0.000000D+00  E= 4.427695D-01

 Vector  126  Occ=0.000000D+00  E= 4.673094D-01

 Vector  127  Occ=0.000000D+00  E= 4.729051D-01

 Vector  128  Occ=0.000000D+00  E= 4.920052D-01

 Vector  129  Occ=0.000000D+00  E= 4.963614D-01

 Vector  130  Occ=0.000000D+00  E= 5.091683D-01

       Multipole analysis of the density wrt the origin
       ------------------------------------------------

     L   x y z        total         open         nuclear
     -   - - -        -----         ----         -------
     0   0 0 0     -0.000000      0.000000    158.000000

     1   1 0 0     -0.610284      0.000000      0.000000
     1   0 1 0      0.469214      0.000000      0.000000
     1   0 0 1     -0.237750      0.000000      0.000000

     2   2 0 0    -95.363108      0.000000   1053.271168
     2   1 1 0     10.373068      0.000000     36.979313
     2   1 0 1     -0.797425      0.000000     -3.510471
     2   0 2 0   -105.938306      0.000000  12413.163239
     2   0 1 1      4.004325      0.000000     46.312873

 Total times  cpu:       85.5s     wall:      132.7s
