============================== echo of input deck ==============================
echo

start molecule

title "Vitamin A"
charge 0

geometry units angstroms print xyz autosym
   O        8.23090        1.08960        1.43850
   C       -4.50650       -0.75290        0.53270
   C       -5.86520       -0.00580        0.43860
   C       -5.72420        1.48000        0.71630
   C       -3.37820        0.02580       -0.18360
   C       -4.78440        2.11310       -0.29860
   C       -3.52650        1.31550       -0.57830
   C       -4.74240       -2.14750       -0.09740
   C       -4.13920       -0.94260        2.02230
   C       -2.13890       -0.70680       -0.38440
   C       -2.50080        2.13310       -1.32910
   C       -0.92580       -0.15850       -0.21170
   C        0.37010       -0.82240       -0.39180
   C        0.34890       -2.27020       -0.81470
   C        1.49220       -0.10380       -0.17050
   C        2.86890       -0.54770       -0.28660
   C        3.91310        0.26240       -0.03920
   C        5.33450       -0.08700       -0.12740
   C        5.68150       -1.49390       -0.53910
   C        6.24950        0.86290        0.15950
   C        7.74250        0.75660        0.14440
   H       -6.59080       -0.43940        1.13850
   H       -6.29440       -0.13310       -0.56520
   H       -5.34960        1.64790        1.73250
   H       -6.70480        1.96670        0.66130
   H       -4.51520        3.11280        0.06460
   H       -5.31970        2.25210       -1.24690
   H       -4.86950       -2.07800       -1.18400
   H       -3.91950       -2.84110        0.10650
   H       -5.64700       -2.61300        0.31260
   H       -4.95350       -1.42880        2.57170
   H       -3.24970       -1.57280        2.13880
   H       -3.92690        0.01230        2.51520
   H       -2.22830       -1.73050       -0.72870
   H       -3.00400        2.79680       -2.04290
   H       -1.82050        1.53150       -1.93700
   H       -1.92990        2.76390       -0.64070
   H       -0.85390        0.85810        0.16980
   H        1.34080       -2.71360       -0.92190
   H       -0.18490       -2.87810       -0.07560
   H       -0.14820       -2.37890       -1.78520
   H        1.38670        0.93920        0.13160
   H        3.04280       -1.57400       -0.58540
   H        3.70320        1.28960        0.25960
   H        5.26980       -2.21570        0.17510
   H        6.75540       -1.68330       -0.59010
   H        5.27830       -1.71400       -1.53390
   H        5.89390        1.85510        0.44060
   H        8.15270        1.48050       -0.56650
   H        8.12860       -0.22760       -0.12270
   H        7.90990        0.41120        2.05730
end

basis spherical
  * library cc-pVDZ
end

dft
  xc b3lyp
  mult 1
end

task dft energy
================================================================================

 Output coordinates in angstroms (scale by  1.889725989 to convert to a.u.)

  No.       Tag          Charge          X              Y              Z
 ---- ---------------- ---------- -------------- -------------- --------------
    1 O                    8.0000     1.10864320    -8.22784982     1.37155806
    2 C                    6.0000    -0.71057462     4.51819762     0.54369333
    3 C                    6.0000     0.03891013     5.87501989     0.44178741
    4 C                    6.0000     1.52880155     5.72860304     0.69355238
    5 C                    6.0000     0.05237308     3.39024884    -0.18990236
    6 C                    6.0000     2.14164311     4.79068398    -0.33542513
    7 C                    6.0000     1.33558935     3.53618847    -0.60603299
    8 C                    6.0000    -2.11500885     4.76054330    -0.06163059
    9 C                    6.0000    -0.87592691     4.14596926     2.03497071
   10 C                    6.0000    -0.68728740     2.15386991    -0.38266490
   11 C                    6.0000     2.13715212     2.51085074    -1.37441475
   12 C                    6.0000    -0.13978535     0.93852495    -0.22376898
   13 C                    6.0000    -0.81057373    -0.35473287    -0.39721404
   14 C                    6.0000    -2.26531132    -0.32769158    -0.79524166
   15 C                    6.0000    -0.09169280    -1.47976175    -0.19230358
   16 C                    6.0000    -0.54166574    -2.85470535    -0.30581021
   17 C                    6.0000     0.26938225    -3.90220197    -0.07608338
   18 C                    6.0000    -0.08576362    -5.32222745    -0.16347106
   19 C                    6.0000    -1.50052816    -5.66354431    -0.55233812
   20 C                    6.0000     0.86612784    -6.24108465     0.10383162
   21 C                    6.0000     0.75507708    -7.73369789     0.08511986
   22 H                    1.0000    -0.38048557     6.59931300     1.15162617
   23 H                    1.0000    -0.10421007     6.30829351    -0.55812406
   24 H                    1.0000     1.71289222     5.34976300     1.70536702
   25 H                    1.0000     2.01745101     6.70795548     0.63381346
   26 H                    1.0000     3.14657994     4.51719090     0.00966393
   27 H                    1.0000     2.26605074     5.32906415    -1.28400803
   28 H                    1.0000    -2.06368444     4.89144362    -1.14878980
   29 H                    1.0000    -2.80750913     3.93895188     0.15109335
   30 H                    1.0000    -2.57070796     5.66499789     0.35954828
   31 H                    1.0000    -1.35021597     4.95967197     2.59555350
   32 H                    1.0000    -1.50672983     3.25791339     2.15898279
   33 H                    1.0000     0.08660257     3.92902971     2.51071218
   34 H                    1.0000    -1.71644101     2.24756628    -0.70910080
   35 H                    1.0000     2.79008704     3.01471463    -2.09761289
   36 H                    1.0000     1.52321071     1.83457947    -1.97441989
   37 H                    1.0000     2.77788462     1.93555275    -0.69897112
   38 H                    1.0000     0.88295720     0.86221219     0.14004616
   39 H                    1.0000    -2.71347028    -1.31787378    -0.89845873
   40 H                    1.0000    -2.85889091     0.20517461    -0.04392910
   41 H                    1.0000    -2.38906080     0.17330346    -1.76192898
   42 H                    1.0000     0.95662613    -1.37846175     0.09231790
   43 H                    1.0000    -1.57343742    -3.02446615    -0.58766622
   44 H                    1.0000     1.30216252    -3.69644424     0.20588818
   45 H                    1.0000    -2.20878445    -5.25234807     0.17557977
   46 H                    1.0000    -1.69401356    -6.73668407    -0.60400071
   47 H                    1.0000    -1.73635930    -5.25602913    -1.54176034
   48 H                    1.0000     1.86405125    -5.88945976     0.36923363
   49 H                    1.0000     1.46549391    -8.14341253    -0.63952895
   50 H                    1.0000    -0.23470065    -8.11589774    -0.16653187
   51 H                    1.0000     0.44187792    -7.90712909     2.00301929

         Total DFT energy =     -855.387331238626

                       DFT Final Molecular Orbital Analysis
                       ------------------------------------

 Vector    1  Occ=2.000000D+00  E=-1.912913D+01

 Vector  365  Occ=0.000000D+00  E= 2.053893D+00

 Vector  366  Occ=0.000000D+00  E= 2.062074D+00

 Vector  367  Occ=0.000000D+00  E= 2.066504D+00

 Vector  368  Occ=0.000000D+00  E= 2.074976D+00

 Vector  369  Occ=0.000000D+00  E= 2.086584D+00

 Vector  370  Occ=0.000000D+00  E= 2.091807D+00

 Vector  371  Occ=0.000000D+00  E= 2.101378D+00

 Vector  372  Occ=0.000000D+00  E= 2.111386D+00

 Vector  373  Occ=0.000000D+00  E= 2.114977D+00

 Vector  374  Occ=0.000000D+00  E= 2.118314D+00

 Vector  375  Occ=0.000000D+00  E= 2.132145D+00

 Vector  376  Occ=0.000000D+00  E= 2.137718D+00

 Vector  377  Occ=0.000000D+00  E= 2.148288D+00

 Vector  378  Occ=0.000000D+00  E= 2.152753D+00

 Vector  379  Occ=0.000000D+00  E= 2.163849D+00

 Vector  380  Occ=0.000000D+00  E= 2.167774D+00

 Vector  381  Occ=0.000000D+00  E= 2.189748D+00

 Vector  382  Occ=0.000000D+00  E= 2.194362D+00

 Vector  383  Occ=0.000000D+00  E= 2.195333D+00

 Vector  384  Occ=0.000000D+00  E= 2.200776D+00

 Vector  385  Occ=0.000000D+00  E= 2.208109D+00

 Vector  386  Occ=0.000000D+00  E= 2.229677D+00

 Vector  387  Occ=0.000000D+00  E= 2.234600D+00

 Vector  388  Occ=0.000000D+00  E= 2.263600D+00

 Vector  389  Occ=0.000000D+00  E= 2.266137D+00

 Vector  390  Occ=0.000000D+00  E= 2.274693D+00

 Vector  391  Occ=0.000000D+00  E= 2.290985D+00

 Vector  392  Occ=0.000000D+00  E= 2.300517D+00

 Vector  393  Occ=0.000000D+00  E= 2.306664D+00

 Vector  394  Occ=0.000000D+00  E= 2.323265D+00

 Vector  395  Occ=0.000000D+00  E= 2.327521D+00

 Vector  396  Occ=0.000000D+00  E= 2.334563D+00

 Vector  397  Occ=0.000000D+00  E= 2.339334D+00

 Vector  398  Occ=0.000000D+00  E= 2.348793D+00

 Vector  399  Occ=0.000000D+00  E= 2.363463D+00

 Vector  400  Occ=0.000000D+00  E= 2.384590D+00

 Vector  401  Occ=0.000000D+00  E= 2.392688D+00

 Vector  402  Occ=0.000000D+00  E= 2.418580D+00

 Vector  403  Occ=0.000000D+00  E= 2.422124D+00

 Vector  404  Occ=0.000000D+00  E= 2.432070D+00

 Vector  405  Occ=0.000000D+00  E= 2.434363D+00

 Vector  406  Occ=0.000000D+00  E= 2.436468D+00

 Vector  407  Occ=0.000000D+00  E= 2.442024D+00

 Vector  408  Occ=0.000000D+00  E= 2.445460D+00

 Vector  409  Occ=0.000000D+00  E= 2.453271D+00

 Vector  410  Occ=0.000000D+00  E= 2.461653D+00

 Vector  411  Occ=0.000000D+00  E= 2.470957D+00

 Vector  412  Occ=0.000000D+00  E= 2.475964D+00

 Vector  413  Occ=0.000000D+00  E= 2.497154D+00

 Vector  414  Occ=0.000000D+00  E= 2.499486D+00

 Vector  415  Occ=0.000000D+00  E= 2.501474D+00

 Vector  416  Occ=0.000000D+00  E= 2.510218D+00

 Vector  417  Occ=0.000000D+00  E= 2.513587D+00

 Vector  418  Occ=0.000000D+00  E= 2.532331D+00

 Vector  419  Occ=0.000000D+00  E= 2.536254D+00

 Vector  420  Occ=0.000000D+00  E= 2.547345D+00

 Vector  421  Occ=0.000000D+00  E= 2.553208D+00

 Vector  422  Occ=0.000000D+00  E= 2.564728D+00

 Vector  423  Occ=0.000000D+00  E= 2.574158D+00

 Vector  424  Occ=0.000000D+00  E= 2.587897D+00

 Vector  425  Occ=0.000000D+00  E= 2.598858D+00

 Vector  426  Occ=0.000000D+00  E= 2.629579D+00

 Vector  427  Occ=0.000000D+00  E= 2.637488D+00

 Vector  428  Occ=0.000000D+00  E= 2.660616D+00

 Vector  429  Occ=0.000000D+00  E= 2.688602D+00

 Vector  430  Occ=0.000000D+00  E= 2.703906D+00

 Vector  431  Occ=0.000000D+00  E= 2.720547D+00

 Vector  432  Occ=0.000000D+00  E= 2.734502D+00

 Vector  433  Occ=0.000000D+00  E= 2.815247D+00

 Vector  434  Occ=0.000000D+00  E= 2.855698D+00

 Vector  435  Occ=0.000000D+00  E= 2.887092D+00

 Vector  436  Occ=0.000000D+00  E= 2.940498D+00

 Vector  437  Occ=0.000000D+00  E= 2.948460D+00

 Vector  438  Occ=0.000000D+00  E= 3.015148D+00

 Vector  439  Occ=0.000000D+00  E= 3.057918D+00

 Vector  440  Occ=0.000000D+00  E= 3.082882D+00

 Vector  441  Occ=0.000000D+00  E= 3.089092D+00

 Vector  442  Occ=0.000000D+00  E= 3.151060D+00

 Vector  443  Occ=0.000000D+00  E= 3.236351D+00

 Vector  444  Occ=0.000000D+00  E= 3.684936D+00

     Multipole analysis of the density
     ---------------------------------

     L   x y z        total         alpha         beta         nuclear
     -   - - -        -----         -----         ----         -------
     0   0 0 0     -0.000000    -79.000000    -79.000000    158.000000

     1   1 0 0     -0.556573     -0.278287     -0.278287      0.000000
     1   0 1 0      0.406664      0.203332      0.203332      0.000000
     1   0 0 1     -0.167157     -0.083579     -0.083579      0.000000

     2   2 0 0    -94.791168   -574.031168   -574.031168   1053.271168
     2   1 1 0      9.495084    -13.742115    -13.742115     36.979313
     2   1 0 1     -0.821845      1.344313      1.344313     -3.510471
     2   0 2 0   -102.806801  -6257.985020  -6257.985020  12413.163239
     2   0 1 1      2.735413    -21.788730    -21.788730     46.312873

 Total times  cpu:      125.8s     wall:      169.8s
