============================== echo of input deck ==============================
echo

start molecule

title "Li-monoene"
charge 0

geometry units angstroms print xyz autosym
   C        0.47305        1.45013        0.00010
   C        1.50014        0.37296       -0.40853
   C       -0.93468        0.96622       -0.16324
   C        1.16991       -1.04506        0.10367
   C       -1.19840       -0.37859       -0.36609
   C       -0.28175       -1.37276       -0.06360
  Li       -0.61397       -0.12562        1.82437
   H        0.69633        1.84855        1.00928
   H        0.62117        2.33306       -0.66395
   H        1.51864        0.33212       -1.51818
   H        2.51386        0.66906       -0.09386
   H       -1.66722        1.71955       -0.39122
   H        1.76631       -1.77208       -0.49489
   H        1.54719       -1.19224        1.13472
   H       -2.19438       -0.67186       -0.72190
   H       -0.51450       -2.41139       -0.21580
end

basis
  * library 6-31G*
end

dft
  xc b3lyp
  mult 1
  mulliken
end

task dft energy

================================================================================

 Output coordinates in angstroms (scale by  1.889725989 to convert to a.u.)

  No.       Tag          Charge          X              Y              Z
 ---- ---------------- ---------- -------------- -------------- --------------
    1 C                    6.0000     1.29367006    -0.69914807     0.15936349
    2 C                    6.0000    -0.00501515    -1.43498406    -0.23325552
    3 C                    6.0000     1.21835225     0.76428582    -0.14924807
    4 C                    6.0000    -1.29905491    -0.68986390     0.15717814
    5 C                    6.0000     0.00550232     1.35738319    -0.45979735
    6 C                    6.0000    -1.21207725     0.77352498    -0.14878131
    7 Li                   3.0000     0.00098899     0.93975361     1.78279767
    8 H                    1.0000     1.57509253    -0.92287696     1.20711513
    9 H                    1.0000     2.12901635    -1.14111610    -0.43167640
   10 H                    1.0000    -0.00443946    -1.54836524    -1.33800782
   11 H                    1.0000    -0.00909203    -2.45588448     0.18155332
   12 H                    1.0000     2.15125363     1.24320678    -0.38678872
   13 H                    1.0000    -2.13616896    -1.12467650    -0.43671006
   14 H                    1.0000    -1.58497030    -0.91319443     1.20381185
   15 H                    1.0000     0.00913342     2.35656717    -0.91389249
   16 H                    1.0000    -2.14105606     1.25989123    -0.38655414

         Total DFT energy =     -241.539620508888

                       DFT Final Molecular Orbital Analysis
                       ------------------------------------

 Vector    1  Occ=2.000000D+00  E=-1.017053D+01

 Vector   44  Occ=0.000000D+00  E= 2.899640D-01

 Vector   45  Occ=0.000000D+00  E= 3.136928D-01

 Vector   46  Occ=0.000000D+00  E= 3.345528D-01

 Vector   47  Occ=0.000000D+00  E= 4.432303D-01

 Vector   48  Occ=0.000000D+00  E= 4.649906D-01

 Vector   49  Occ=0.000000D+00  E= 4.785775D-01

 Vector   50  Occ=0.000000D+00  E= 4.831733D-01

 Vector   51  Occ=0.000000D+00  E= 5.274919D-01

 Vector   52  Occ=0.000000D+00  E= 5.393141D-01

 Vector   53  Occ=0.000000D+00  E= 5.437087D-01

 Vector   54  Occ=0.000000D+00  E= 5.455598D-01

 Vector   55  Occ=0.000000D+00  E= 6.441333D-01

 Vector   56  Occ=0.000000D+00  E= 6.508848D-01

 Vector   57  Occ=0.000000D+00  E= 6.707936D-01

 Vector   58  Occ=0.000000D+00  E= 6.800198D-01

 Vector   59  Occ=0.000000D+00  E= 6.912606D-01

 Vector   60  Occ=0.000000D+00  E= 7.083520D-01

 Vector   61  Occ=0.000000D+00  E= 7.179597D-01

 Vector   62  Occ=0.000000D+00  E= 7.297822D-01

 Vector   63  Occ=0.000000D+00  E= 7.702211D-01

 Vector   64  Occ=0.000000D+00  E= 7.721411D-01

 Vector   65  Occ=0.000000D+00  E= 8.010682D-01

 Vector   66  Occ=0.000000D+00  E= 8.627176D-01

 Vector   67  Occ=0.000000D+00  E= 8.678504D-01

 Vector   68  Occ=0.000000D+00  E= 8.744198D-01

 Vector   69  Occ=0.000000D+00  E= 8.969097D-01

 Vector   70  Occ=0.000000D+00  E= 9.043772D-01

 Vector   71  Occ=0.000000D+00  E= 9.113229D-01

 Vector   72  Occ=0.000000D+00  E= 9.140233D-01

 Vector   73  Occ=0.000000D+00  E= 9.540224D-01

 Vector   74  Occ=0.000000D+00  E= 9.567000D-01

 Vector   75  Occ=0.000000D+00  E= 9.897355D-01

 Vector   76  Occ=0.000000D+00  E= 1.016322D+00

 Vector   77  Occ=0.000000D+00  E= 1.019764D+00

 Vector   78  Occ=0.000000D+00  E= 1.030598D+00

 Vector   79  Occ=0.000000D+00  E= 1.121063D+00

 Vector   80  Occ=0.000000D+00  E= 1.124797D+00

 Vector   81  Occ=0.000000D+00  E= 1.216609D+00

 Vector   82  Occ=0.000000D+00  E= 1.275114D+00

 Vector   83  Occ=0.000000D+00  E= 1.314498D+00

 Vector   84  Occ=0.000000D+00  E= 1.424752D+00

 Vector   85  Occ=0.000000D+00  E= 1.484226D+00

 Vector   86  Occ=0.000000D+00  E= 1.516844D+00

 Vector   87  Occ=0.000000D+00  E= 1.529867D+00

 Vector   88  Occ=0.000000D+00  E= 1.567619D+00

 Vector   89  Occ=0.000000D+00  E= 1.639444D+00

 Vector   90  Occ=0.000000D+00  E= 1.734950D+00

 Vector   91  Occ=0.000000D+00  E= 1.759972D+00

 Vector   92  Occ=0.000000D+00  E= 1.795720D+00

 Vector   93  Occ=0.000000D+00  E= 1.838028D+00

 Vector   94  Occ=0.000000D+00  E= 1.884901D+00

 Vector   95  Occ=0.000000D+00  E= 1.937234D+00

 Vector   96  Occ=0.000000D+00  E= 1.950433D+00

 Vector   97  Occ=0.000000D+00  E= 1.969581D+00

 Vector   98  Occ=0.000000D+00  E= 2.013084D+00

 Vector   99  Occ=0.000000D+00  E= 2.055694D+00

 Vector  100  Occ=0.000000D+00  E= 2.070292D+00

 Vector  101  Occ=0.000000D+00  E= 2.093034D+00

 Vector  102  Occ=0.000000D+00  E= 2.265070D+00

 Vector  103  Occ=0.000000D+00  E= 2.268937D+00

 Vector  104  Occ=0.000000D+00  E= 2.294517D+00

 Vector  105  Occ=0.000000D+00  E= 2.320653D+00

 Vector  106  Occ=0.000000D+00  E= 2.357207D+00

 Vector  107  Occ=0.000000D+00  E= 2.376264D+00

 Vector  108  Occ=0.000000D+00  E= 2.464646D+00

 Vector  109  Occ=0.000000D+00  E= 2.466889D+00

 Vector  110  Occ=0.000000D+00  E= 2.525680D+00

 Vector  111  Occ=0.000000D+00  E= 2.542169D+00

 Vector  112  Occ=0.000000D+00  E= 2.653985D+00

 Vector  113  Occ=0.000000D+00  E= 2.664689D+00

 Vector  114  Occ=0.000000D+00  E= 2.696236D+00

 Vector  115  Occ=0.000000D+00  E= 2.733577D+00

 Vector  116  Occ=0.000000D+00  E= 2.957105D+00

 Vector  117  Occ=0.000000D+00  E= 3.126369D+00

 Vector  118  Occ=0.000000D+00  E= 4.204987D+00

 Vector  119  Occ=0.000000D+00  E= 4.336242D+00

 Vector  120  Occ=0.000000D+00  E= 4.398368D+00

 Vector  121  Occ=0.000000D+00  E= 4.469500D+00

 Vector  122  Occ=0.000000D+00  E= 4.514459D+00

 Vector  123  Occ=0.000000D+00  E= 4.682250D+00

     Multipole analysis of the density
     ---------------------------------

     L   x y z        total         alpha         beta         nuclear
     -   - - -        -----         -----         ----         -------
     0   0 0 0     -0.000000    -24.000000    -24.000000     48.000000

     1   1 0 0      0.000353      0.000177      0.000177      0.000000
     1   0 1 0      0.041880      0.020940      0.020940      0.000000
     1   0 0 1      1.536282      0.768141      0.768141      0.000000

     2   2 0 0    -33.587432   -126.049262   -126.049262    218.511091
     2   1 1 0      0.009021      0.009715      0.009715     -0.010410
     2   1 0 1      0.007333      0.006081      0.006081     -0.004829
     2   0 2 0    -31.029874   -123.201015   -123.201015    215.372156
     2   0 1 1      2.546927      5.075807      5.075807     -7.604688

 Total times  cpu:       22.4s     wall:       25.4s
