============================== echo of input deck ==============================
echo

start molecule

title "P atom"
charge 0
print low

geometry units angstroms print xyz autosym
   P        0.0            0.0            0.0
end

basis
  * library 6-31G*
end

dft
  xc b3lyp
  mult 4
end

task dft freq
================================================================================

 Output coordinates in angstroms (scale by  1.889725989 to convert to a.u.)

  No.       Tag          Charge          X              Y              Z
 ---- ---------------- ---------- -------------- -------------- --------------
    1 P                   15.0000     0.00000000     0.00000000     0.00000000

         Total DFT energy =     -341.258089831567
 Zero-Point correction to Energy  =    0.000 kcal/mol  (  0.000000 au)
 Thermal correction to Energy     =    0.888 kcal/mol  (  0.001416 au)
 Thermal correction to Enthalpy   =    1.481 kcal/mol  (  0.002359 au)
 Total Entropy                    =   36.208 cal/mol-K
   - Translational                =   36.208 cal/mol-K (mol. weight =  30.9738)
   - Rotational                   =    0.000 cal/mol-K (symmetry #  =        1)
   - Vibrational                  =    0.000 cal/mol-K
   - Translational                  =    2.979 cal/mol-K
   - Rotational                     =    0.000 cal/mol-K
   - Vibrational                    =    0.000 cal/mol-K
 P.Frequency        0.00        0.00        0.00

 Normal Eigenvalue ||           Projected Infra Red Intensities
  Mode   [cm**-1]  || [atomic units] [(debye/angs)**2] [(KM/mol)] [arbitrary]
 ------ ---------- || -------------- ----------------- ---------- -----------
    1        0.000 ||    0.000000           0.000         0.000         NaN
    2        0.000 ||    0.000000           0.000         0.000         NaN
    3        0.000 ||    0.000000           0.000         0.000         NaN
 ----------------------------------------------------------------------------

 Total times  cpu:        1.0s     wall:        1.1s
