============================== echo of input deck ==============================
echo

start molecule

title "P4"
charge 0
print low

geometry units angstroms print xyz autosym
   P       -6.19695       -0.13481       -0.17820
   P       -4.49112        1.25152       -0.04768
   P       -4.14294       -0.92252       -0.08148
   P       -4.84225        0.10887       -1.89697
end

basis
  * library 6-31G*
end

dft
  xc b3lyp
  mult 1
end

task dft optimize
task dft freq
================================================================================

         Total DFT energy =    -1365.441541471772
@ Step       Energy      Delta E   Gmax     Grms     Xrms     Xmax   Walltime
@ ---- ---------------- -------- -------- -------- -------- -------- --------
@    0   -1365.44154147  0.0D+00  0.00329  0.00147  0.00000  0.00000      1.2
         Total DFT energy =    -1365.441693617295
         Total DFT energy =    -1365.441829033108
@    1   -1365.44182903 -2.9D-04  0.00008  0.00004  0.01015  0.01748      2.7
         Total DFT energy =    -1365.441829191401
         Total DFT energy =  -1365.441829191401
@    2   -1365.44182919 -1.6D-07  0.00001  0.00000  0.00026  0.00044      3.3
@    2   -1365.44182919 -1.6D-07  0.00001  0.00000  0.00026  0.00044      3.3

 Output coordinates in angstroms (scale by  1.889725989 to convert to a.u.)

  No.       Tag          Charge          X              Y              Z
 ---- ---------------- ---------- -------------- -------------- --------------
    1 P                   15.0000    -0.57213294     0.34560295    -1.18209853
    2 P                   15.0000    -0.03201800    -1.35029404     0.14073695
    3 P                   15.0000     1.28898634     0.42685796     0.02094924
    4 P                   15.0000    -0.68483540     0.57783313     1.02041234

         Total DFT energy =    -1365.441829286316
 Zero-Point correction to Energy  =    3.905 kcal/mol  (  0.006223 au)
 Thermal correction to Energy     =    6.684 kcal/mol  (  0.010652 au)
 Thermal correction to Enthalpy   =    7.276 kcal/mol  (  0.011595 au)
 Total Entropy                    =   71.789 cal/mol-K
   - Translational                =   40.339 cal/mol-K (mol. weight = 123.8950)
   - Rotational                   =   26.567 cal/mol-K (symmetry #  =        1)
   - Vibrational                  =    4.883 cal/mol-K
   - Translational                  =    2.979 cal/mol-K
   - Rotational                     =    2.979 cal/mol-K
   - Vibrational                    =    8.084 cal/mol-K
 P.Frequency       -0.00        0.00        0.00        0.00        0.00        0.00
 P.Frequency      367.33      367.33      463.78      463.78      463.78      606.80

 Normal Eigenvalue ||           Projected Infra Red Intensities
  Mode   [cm**-1]  || [atomic units] [(debye/angs)**2] [(KM/mol)] [arbitrary]
 ------ ---------- || -------------- ----------------- ---------- -----------
    1       -0.000 ||    0.000000           0.000         0.000       0.000
    2        0.000 ||    0.000000           0.000         0.000       0.000
    3        0.000 ||    0.000000           0.000         0.000       0.000
    4        0.000 ||    0.000000           0.000         0.000       0.000
    5        0.000 ||    0.000000           0.000         0.000       0.000
    6        0.000 ||    0.000000           0.000         0.000       0.000
    7      367.332 ||    0.000000           0.000         0.000       0.000
    8      367.333 ||    0.000000           0.000         0.000       0.000
    9      463.780 ||    0.001769           0.041         1.724      39.978
   10      463.783 ||    0.001770           0.041         1.726      40.005
   11      463.784 ||    0.001771           0.041         1.726      40.018
   12      606.799 ||    0.000000           0.000         0.000       0.000
 ----------------------------------------------------------------------------

 Total times  cpu:       21.8s     wall:       22.0s
